65
Energy = -1561.267455417
Ag    2.4765972    5.7142389    2.9473238 
Si    6.3360405    4.3202003    0.1340570 
Si    4.5982514    1.6212837    0.1751015 
N     5.0898842    3.2225615    0.6645220 
C     1.0985647    7.3709734    3.1430671 
N     0.5645791    8.0737684    2.1318600 
N     0.6346538    7.8601231    4.3038446 
C    -0.1861110    9.2293357    2.6257221 
H    -1.1270655    9.3817288    2.0790938 
H     0.4204457   10.1517340    2.5336214 
C     7.0553197    5.2061634    1.6359466 
H     6.2541372    5.7169483    2.2014600 
H     7.8076645    5.9624884    1.3462714 
H     7.5359923    4.4864849    2.3226546 
C     5.8902549    0.3151997    0.6218728 
H     6.8461520    0.4931575    0.0973616 
H     5.5441856   -0.6998436    0.3521422 
H     6.0970659    0.3287743    1.7071779 
C    -0.4162996    8.8541455    4.0796015 
H    -0.3280366    9.7175141    4.7534075 
H    -1.4155233    8.3997609    4.2302195 
C     5.6467394    5.6270351   -1.0505147 
H     5.2044155    5.1530264   -1.9457039 
H     6.4282216    6.3331832   -1.3877301 
H     4.8504686    6.2126398   -0.5548851 
C     0.6980890    6.5148278    0.2240954 
H     1.3054662    5.7774268    0.7783244 
H     0.9551986    6.4251334   -0.8453317 
H    -0.3663909    6.2525265    0.3518797 
C     2.4397165    8.3117519    0.5476789 
H     2.6310700    9.3392279    0.9062172 
H     2.7420849    8.2548282   -0.5120105 
H     3.0796792    7.6191285    1.1227161 
C     0.9606758    7.9433138    0.7051526 
C     0.8724611    7.2516426    5.6386210 
C     2.3747683    7.2071203    5.9270874 
H     2.9135067    6.5717562    5.2021482 
H     2.5506880    6.7910036    6.9338309 
H     2.8084295    8.2212399    5.8862752 
C     0.1139340    8.8932505   -0.1472883 
H    -0.9621350    8.6566400   -0.0807369 
H     0.4120546    8.7794845   -1.2022758 
H     0.2640853    9.9521868    0.1231722 
C     7.7022703    3.3707299   -0.7592689 
H     8.1913738    2.6434119   -0.0871853 
H     8.4778926    4.0707624   -1.1202867 
H     7.3218120    2.8189359   -1.6376698 
H    -0.8850769    8.1747139    6.5964675 
C     0.2096180    8.1133826    6.7173104 
H     0.6247586    9.1356707    6.7397852 
H     0.4052046    7.6568104    7.7012323 
C     0.2657716    5.8451485    5.6782815 
H    -0.8163217    5.8771655    5.4585901 
H     0.4012100    5.3939474    6.6764593 
H     0.7519235    5.1866381    4.9366060 
C     2.9928511    1.2248368    1.0807277 
H     2.6339971    0.2108558    0.8266155 
H     2.1978913    1.9459444    0.8185943 
H     5.2138867    1.7548237   -2.2660691 
C     4.2980665    1.5255503   -1.6911500 
H     3.5199465    2.2464627   -2.0007860 
H     3.9656322    0.5143124   -1.9906453 
H     3.1328812    1.2736302    2.1755635 
H     4.4904957    3.6246849    1.3978284 
H     3.5361937    4.4402423    2.8290792 
